# vtk DataFile Version 3.0
MOAB 5.5.1
ASCII
DATASET UNSTRUCTURED_GRID
POINTS 84 double
-0.5 -0.5 0.5
-0.5 -0.5 -0.5
-0.5 0.5 0.5
-0.5 0.5 -0.5
0.5 -0.5 0.5
0.5 -0.5 -0.5
0.5 0.5 0.5
0.5 0.5 -0.5
-0.5 0 0
0.5 0 0
0 -0.5 0
0 0.5 0
0 0 -0.5
0 0 0.5
-0.5 -0.5 0.5
-0.5 -0.5 -0.5
-0.5 0.5 0.5
-0.5 0.5 -0.5
0.5 -0.5 0.5
0.5 -0.5 -0.5
0.5 0.5 0.5
0.5 0.5 -0.5
-0.5 0 0
0.5 0 0
0 -0.5 0
0 0.5 0
0 0 -0.5
0 0 0.5
-0.5 -0.5 0.5
-0.5 -0.5 -0.5
-0.5 0.5 0.5
-0.5 0.5 -0.5
0.5 -0.5 0.5
0.5 -0.5 -0.5
0.5 0.5 0.5
0.5 0.5 -0.5
-0.5 0 0
0.5 0 0
0 -0.5 0
0 0.5 0
0 0 -0.5
0 0 0.5
-0.5 -0.5 0.5
-0.5 -0.5 -0.5
-0.5 0.5 0.5
-0.5 0.5 -0.5
0.5 -0.5 0.5
0.5 -0.5 -0.5
0.5 0.5 0.5
0.5 0.5 -0.5
-0.5 0 0
0.5 0 0
0 -0.5 0
0 0.5 0
0 0 -0.5
0 0 0.5
-0.5 -0.5 0.5
-0.5 -0.5 -0.5
-0.5 0.5 0.5
-0.5 0.5 -0.5
0.5 -0.5 0.5
0.5 -0.5 -0.5
0.5 0.5 0.5
0.5 0.5 -0.5
-0.5 0 0
0.5 0 0
0 -0.5 0
0 0.5 0
0 0 -0.5
0 0 0.5
-0.5 -0.5 0.5
-0.5 -0.5 -0.5
-0.5 0.5 0.5
-0.5 0.5 -0.5
0.5 -0.5 0.5
0.5 -0.5 -0.5
0.5 0.5 0.5
0.5 0.5 -0.5
-0.5 0 0
0.5 0 0
0 -0.5 0
0 0.5 0
0 0 -0.5
0 0 0.5
CELLS 24 96
3 1 0 8
3 2 3 8
3 8 3 1
3 8 0 2
3 19 23 18
3 20 23 21
3 23 19 21
3 23 20 18
3 28 29 38
3 33 32 38
3 38 32 28
3 38 29 33
3 44 53 45
3 49 53 48
3 53 44 48
3 53 49 45
3 68 57 59
3 68 63 61
3 59 63 68
3 61 57 68
3 83 72 70
3 83 74 76
3 72 83 76
3 74 83 70
CELL_TYPES 24
5
5
5
5
5
5
5
5
5
5
5
5
5
5
5
5
5
5
5
5
5
5
5
5
POINT_DATA 84
SCALARS GLOBAL_ID int 1
LOOKUP_TABLE default
-1 
-1 
-1 
-1 
-1 
-1 
-1 
-1 
-1 
-1 
-1 
-1 
-1 
-1 
-1 
-1 
-1 
-1 
-1 
-1 
-1 
-1 
-1 
-1 
-1 
-1 
-1 
-1 
-1 
-1 
-1 
-1 
-1 
-1 
-1 
-1 
-1 
-1 
-1 
-1 
-1 
-1 
-1 
-1 
-1 
-1 
-1 
-1 
-1 
-1 
-1 
-1 
-1 
-1 
-1 
-1 
-1 
-1 
-1 
-1 
-1 
-1 
-1 
-1 
-1 
-1 
-1 
-1 
-1 
-1 
-1 
-1 
-1 
-1 
-1 
-1 
-1 
-1 
-1 
-1 
-1 
-1 
-1 
-1 
CELL_DATA 24
SCALARS GLOBAL_ID int 1
LOOKUP_TABLE default
-1 
-1 
-1 
-1 
-1 
-1 
-1 
-1 
-1 
-1 
-1 
-1 
-1 
-1 
-1 
-1 
-1 
-1 
-1 
-1 
-1 
-1 
-1 
-1 
