# vtk DataFile Version 5.1
vtk output
ASCII
DATASET UNSTRUCTURED_GRID
POINTS 323 double
-4.0450849719 -2.9389262615 0 -4.0450849719 -2.9389262615 0.66666666667 -4.0450849719 -2.9389262615 1.3333333333 
-4.0450849719 -2.9389262615 2 -4.0450849719 2.9389262615 0 -4.0450849719 2.9389262615 0.66666666667 
-4.0450849719 2.9389262615 1.3333333333 -4.0450849719 2.9389262615 2 -3.0338137289 -2.2041946961 0 
-3.0338137289 -2.2041946961 0.66666666667 -3.0338137289 -2.2041946961 1.3333333333 -3.0338137289 -2.2041946961 2 
-3.0338137289 2.2041946961 0 -3.0338137289 2.2041946961 0.66666666667 -3.0338137289 2.2041946961 1.3333333333 
-3.0338137289 2.2041946961 2 -2.0225424859 -1.4694631307 0 -2.0225424859 -1.4694631307 0.66666666667 
-2.0225424859 -1.4694631307 1.3333333333 -2.0225424859 -1.4694631307 2 -2.0225424859 1.4694631307 0 
-2.0225424859 1.4694631307 0.66666666667 -2.0225424859 1.4694631307 1.3333333333 -2.0225424859 1.4694631307 2 
-1.011271243 -0.73473156537 0 -1.011271243 -0.73473156537 0.66666666667 -1.011271243 -0.73473156537 1.3333333333 
-1.011271243 -0.73473156537 2 -1.011271243 0.73473156537 0 -1.011271243 0.73473156537 0.66666666667 
-1.011271243 0.73473156537 1.3333333333 -1.011271243 0.73473156537 2 0 0 0 
0 0 0.66666666667 0 0 1.3333333333 0 0 2 
0.38627124297 -1.1888206454 0 0.38627124297 -1.1888206454 0.66666666667 0.38627124297 -1.1888206454 1.3333333333 
0.38627124297 -1.1888206454 2 0.38627124297 1.1888206454 0 0.38627124297 1.1888206454 0.66666666667 
0.38627124297 1.1888206454 1.3333333333 0.38627124297 1.1888206454 2 0.77254248594 -2.3776412907 0 
0.77254248594 -2.3776412907 0.66666666667 0.77254248594 -2.3776412907 1.3333333333 0.77254248594 -2.3776412907 2 
0.77254248594 2.3776412907 0 0.77254248594 2.3776412907 0.66666666667 0.77254248594 2.3776412907 1.3333333333 
0.77254248594 2.3776412907 2 1.1588137289 -3.5664619361 0 1.1588137289 -3.5664619361 0.66666666667 
1.1588137289 -3.5664619361 1.3333333333 1.1588137289 -3.5664619361 2 1.1588137289 3.5664619361 0 
1.1588137289 3.5664619361 0.66666666667 1.1588137289 3.5664619361 1.3333333333 1.1588137289 3.5664619361 2 
1.25 -3.0616169979e-16 0 1.25 -3.0616169979e-16 0.66666666667 1.25 -3.0616169979e-16 1.3333333333 
1.25 -3.0616169979e-16 2 1.25 0 0 1.25 0 0.66666666667 
1.25 0 1.3333333333 1.25 0 2 1.5450849719 -4.7552825815 0 
1.5450849719 -4.7552825815 0.66666666667 1.5450849719 -4.7552825815 1.3333333333 1.5450849719 -4.7552825815 2 
1.5450849719 4.7552825815 0 1.5450849719 4.7552825815 0.66666666667 1.5450849719 4.7552825815 1.3333333333 
1.5450849719 4.7552825815 2 2.5 -6.1232339957e-16 0 2.5 -6.1232339957e-16 0.66666666667 
2.5 -6.1232339957e-16 1.3333333333 2.5 -6.1232339957e-16 2 2.5 0 0 
2.5 0 0.66666666667 2.5 0 1.3333333333 2.5 0 2 
3.75 -9.1848509936e-16 0 3.75 -9.1848509936e-16 0.66666666667 3.75 -9.1848509936e-16 1.3333333333 
3.75 -9.1848509936e-16 2 3.75 0 0 3.75 0 0.66666666667 
3.75 0 1.3333333333 3.75 0 2 5 -1.2246467991e-15 0 
5 -1.2246467991e-15 0.66666666667 5 -1.2246467991e-15 1.3333333333 5 -1.2246467991e-15 2 
5 0 0 5 0 0.66666666667 5 0 1.3333333333 
5 0 2 0.625 0 0 1.875 0 0 
3.125 0 0 4.375 0 0 0.19313562148 0.59441032268 0 
0.57940686445 1.7832309681 0 0.96567810742 2.9720516134 0 1.3519493504 4.1608722588 0 
-0.50563562148 0.36736578268 0 -1.5169068645 1.102097348 0 -2.5281781074 1.8368289134 0 
-3.5394493504 2.5715604788 0 -0.50563562148 -0.36736578268 0 -1.5169068645 -1.102097348 0 
-2.5281781074 -1.8368289134 0 -3.5394493504 -2.5715604788 0 0.19313562148 -0.59441032268 0 
0.57940686445 -1.7832309681 0 0.96567810742 -2.9720516134 0 1.3519493504 -4.1608722588 0 
0.625 0 0.66666666667 1.875 0 0.66666666667 3.125 0 0.66666666667 
4.375 0 0.66666666667 0.19313562148 0.59441032268 0.66666666667 0.57940686445 1.7832309681 0.66666666667 
0.96567810742 2.9720516134 0.66666666667 1.3519493504 4.1608722588 0.66666666667 -0.50563562148 0.36736578268 0.66666666667 
-1.5169068645 1.102097348 0.66666666667 -2.5281781074 1.8368289134 0.66666666667 -3.5394493504 2.5715604788 0.66666666667 
-0.50563562148 -0.36736578268 0.66666666667 -1.5169068645 -1.102097348 0.66666666667 -2.5281781074 -1.8368289134 0.66666666667 
-3.5394493504 -2.5715604788 0.66666666667 0.19313562148 -0.59441032268 0.66666666667 0.57940686445 -1.7832309681 0.66666666667 
0.96567810742 -2.9720516134 0.66666666667 1.3519493504 -4.1608722588 0.66666666667 0.625 0 1.3333333333 
1.875 0 1.3333333333 3.125 0 1.3333333333 4.375 0 1.3333333333 
0.19313562148 0.59441032268 1.3333333333 0.57940686445 1.7832309681 1.3333333333 0.96567810742 2.9720516134 1.3333333333 
1.3519493504 4.1608722588 1.3333333333 -0.50563562148 0.36736578268 1.3333333333 -1.5169068645 1.102097348 1.3333333333 
-2.5281781074 1.8368289134 1.3333333333 -3.5394493504 2.5715604788 1.3333333333 -0.50563562148 -0.36736578268 1.3333333333 
-1.5169068645 -1.102097348 1.3333333333 -2.5281781074 -1.8368289134 1.3333333333 -3.5394493504 -2.5715604788 1.3333333333 
0.19313562148 -0.59441032268 1.3333333333 0.57940686445 -1.7832309681 1.3333333333 0.96567810742 -2.9720516134 1.3333333333 
1.3519493504 -4.1608722588 1.3333333333 0.625 0 2 1.875 0 2 
3.125 0 2 4.375 0 2 0.19313562148 0.59441032268 2 
0.57940686445 1.7832309681 2 0.96567810742 2.9720516134 2 1.3519493504 4.1608722588 2 
-0.50563562148 0.36736578268 2 -1.5169068645 1.102097348 2 -2.5281781074 1.8368289134 2 
-3.5394493504 2.5715604788 2 -0.50563562148 -0.36736578268 2 -1.5169068645 -1.102097348 2 
-2.5281781074 -1.8368289134 2 -3.5394493504 -2.5715604788 2 0.19313562148 -0.59441032268 2 
0.57940686445 -1.7832309681 2 0.96567810742 -2.9720516134 2 1.3519493504 -4.1608722588 2 
1.011271243 0.73473156537 0 2.0225424859 1.4694631307 0 3.0338137289 2.2041946961 0 
4.0450849719 2.9389262615 0 -0.38627124297 1.1888206454 0 -0.77254248594 2.3776412907 0 
-1.1588137289 3.5664619361 0 -1.5450849719 4.7552825815 0 -1.25 1.5308084989e-16 0 
-2.5 3.0616169979e-16 0 -3.75 4.5924254968e-16 0 -5 6.1232339957e-16 0 
-0.38627124297 -1.1888206454 0 -0.77254248594 -2.3776412907 0 -1.1588137289 -3.5664619361 0 
-1.5450849719 -4.7552825815 0 1.011271243 -0.73473156537 0 2.0225424859 -1.4694631307 0 
3.0338137289 -2.2041946961 0 4.0450849719 -2.9389262615 0 1.011271243 0.73473156537 0.66666666667 
2.0225424859 1.4694631307 0.66666666667 3.0338137289 2.2041946961 0.66666666667 4.0450849719 2.9389262615 0.66666666667 
-0.38627124297 1.1888206454 0.66666666667 -0.77254248594 2.3776412907 0.66666666667 -1.1588137289 3.5664619361 0.66666666667 
-1.5450849719 4.7552825815 0.66666666667 -1.25 1.5308084989e-16 0.66666666667 -2.5 3.0616169979e-16 0.66666666667 
-3.75 4.5924254968e-16 0.66666666667 -5 6.1232339957e-16 0.66666666667 -0.38627124297 -1.1888206454 0.66666666667 
-0.77254248594 -2.3776412907 0.66666666667 -1.1588137289 -3.5664619361 0.66666666667 -1.5450849719 -4.7552825815 0.66666666667 
1.011271243 -0.73473156537 0.66666666667 2.0225424859 -1.4694631307 0.66666666667 3.0338137289 -2.2041946961 0.66666666667 
4.0450849719 -2.9389262615 0.66666666667 1.011271243 0.73473156537 1.3333333333 2.0225424859 1.4694631307 1.3333333333 
3.0338137289 2.2041946961 1.3333333333 4.0450849719 2.9389262615 1.3333333333 -0.38627124297 1.1888206454 1.3333333333 
-0.77254248594 2.3776412907 1.3333333333 -1.1588137289 3.5664619361 1.3333333333 -1.5450849719 4.7552825815 1.3333333333 
-1.25 1.5308084989e-16 1.3333333333 -2.5 3.0616169979e-16 1.3333333333 -3.75 4.5924254968e-16 1.3333333333 
-5 6.1232339957e-16 1.3333333333 -0.38627124297 -1.1888206454 1.3333333333 -0.77254248594 -2.3776412907 1.3333333333 
-1.1588137289 -3.5664619361 1.3333333333 -1.5450849719 -4.7552825815 1.3333333333 1.011271243 -0.73473156537 1.3333333333 
2.0225424859 -1.4694631307 1.3333333333 3.0338137289 -2.2041946961 1.3333333333 4.0450849719 -2.9389262615 1.3333333333 
1.011271243 0.73473156537 2 2.0225424859 1.4694631307 2 3.0338137289 2.2041946961 2 
4.0450849719 2.9389262615 2 -0.38627124297 1.1888206454 2 -0.77254248594 2.3776412907 2 
-1.1588137289 3.5664619361 2 -1.5450849719 4.7552825815 2 -1.25 1.5308084989e-16 2 
-2.5 3.0616169979e-16 2 -3.75 4.5924254968e-16 2 -5 6.1232339957e-16 2 
-0.38627124297 -1.1888206454 2 -0.77254248594 -2.3776412907 2 -1.1588137289 -3.5664619361 2 
-1.5450849719 -4.7552825815 2 1.011271243 -0.73473156537 2 2.0225424859 -1.4694631307 2 
3.0338137289 -2.2041946961 2 4.0450849719 -2.9389262615 2 0 0 0.33333333333 
1.25 0 0.33333333333 2.5 0 0.33333333333 3.75 0 0.33333333333 
5 0 0.33333333333 0.38627124297 1.1888206454 0.33333333333 0.77254248594 2.3776412907 0.33333333333 
1.1588137289 3.5664619361 0.33333333333 1.5450849719 4.7552825815 0.33333333333 -1.011271243 0.73473156537 0.33333333333 
-2.0225424859 1.4694631307 0.33333333333 -3.0338137289 2.2041946961 0.33333333333 -4.0450849719 2.9389262615 0.33333333333 
-1.011271243 -0.73473156537 0.33333333333 -2.0225424859 -1.4694631307 0.33333333333 -3.0338137289 -2.2041946961 0.33333333333 
-4.0450849719 -2.9389262615 0.33333333333 0.38627124297 -1.1888206454 0.33333333333 0.77254248594 -2.3776412907 0.33333333333 
1.1588137289 -3.5664619361 0.33333333333 1.5450849719 -4.7552825815 0.33333333333 0 0 1 
1.25 0 1 2.5 0 1 3.75 0 1 
5 0 1 0.38627124297 1.1888206454 1 0.77254248594 2.3776412907 1 
1.1588137289 3.5664619361 1 1.5450849719 4.7552825815 1 -1.011271243 0.73473156537 1 
-2.0225424859 1.4694631307 1 -3.0338137289 2.2041946961 1 -4.0450849719 2.9389262615 1 
-1.011271243 -0.73473156537 1 -2.0225424859 -1.4694631307 1 -3.0338137289 -2.2041946961 1 
-4.0450849719 -2.9389262615 1 0.38627124297 -1.1888206454 1 0.77254248594 -2.3776412907 1 
1.1588137289 -3.5664619361 1 1.5450849719 -4.7552825815 1 0 0 1.6666666667 
1.25 0 1.6666666667 2.5 0 1.6666666667 3.75 0 1.6666666667 
5 0 1.6666666667 0.38627124297 1.1888206454 1.6666666667 0.77254248594 2.3776412907 1.6666666667 
1.1588137289 3.5664619361 1.6666666667 1.5450849719 4.7552825815 1.6666666667 -1.011271243 0.73473156537 1.6666666667 
-2.0225424859 1.4694631307 1.6666666667 -3.0338137289 2.2041946961 1.6666666667 -4.0450849719 2.9389262615 1.6666666667 
-1.011271243 -0.73473156537 1.6666666667 -2.0225424859 -1.4694631307 1.6666666667 -3.0338137289 -2.2041946961 1.6666666667 
-4.0450849719 -2.9389262615 1.6666666667 0.38627124297 -1.1888206454 1.6666666667 0.77254248594 -2.3776412907 1.6666666667 
1.1588137289 -3.5664619361 1.6666666667 1.5450849719 -4.7552825815 1.6666666667 
CELLS 61 1200
OFFSETS vtktypeint64
0 20 40 60 80 100 120 140 160 
180 200 220 240 260 280 300 320 340 
360 380 400 420 440 460 480 500 520 
540 560 580 600 620 640 660 680 700 
720 740 760 780 800 820 840 860 880 
900 920 940 960 980 1000 1020 1040 1060 
1080 1100 1120 1140 1160 1180 1200 
CONNECTIVITY vtktypeint64
32 60 40 32 33 61 41 33 100 
180 104 32 120 200 124 33 260 261 
265 260 60 76 48 40 61 77 49 
41 101 181 105 180 121 201 125 200 
261 262 266 265 76 84 56 48 77 
85 57 49 102 182 106 181 122 202 
126 201 262 263 267 266 84 92 72 
56 85 93 73 57 103 183 107 182 
123 203 127 202 263 264 268 267 32 
40 28 32 33 41 29 33 104 184 
108 32 124 204 128 33 260 265 269 
260 40 48 20 28 41 49 21 29 
105 185 109 184 125 205 129 204 265 
266 270 269 48 56 12 20 49 57 
13 21 106 186 110 185 126 206 130 
205 266 267 271 270 56 72 4 12 
57 73 5 13 107 187 111 186 127 
207 131 206 267 268 272 271 32 28 
24 32 33 29 25 33 108 188 112 
32 128 208 132 33 260 269 273 260 
28 20 16 24 29 21 17 25 109 
189 113 188 129 209 133 208 269 270 
274 273 20 12 8 16 21 13 9 
17 110 190 114 189 130 210 134 209 
270 271 275 274 12 4 0 8 13 
5 1 9 111 191 115 190 131 211 
135 210 271 272 276 275 32 24 36 
32 33 25 37 33 112 192 116 32 
132 212 136 33 260 273 277 260 24 
16 44 36 25 17 45 37 113 193 
117 192 133 213 137 212 273 274 278 
277 16 8 52 44 17 9 53 45 
114 194 118 193 134 214 138 213 274 
275 279 278 8 0 68 52 9 1 
69 53 115 195 119 194 135 215 139 
214 275 276 280 279 32 36 60 32 
33 37 61 33 116 196 100 32 136 
216 120 33 260 277 261 260 36 44 
76 60 37 45 77 61 117 197 101 
196 137 217 121 216 277 278 262 261 
44 52 84 76 45 53 85 77 118 
198 102 197 138 218 122 217 278 279 
263 262 52 68 92 84 53 69 93 
85 119 199 103 198 139 219 123 218 
279 280 264 263 33 61 41 33 34 
62 42 34 120 200 124 33 140 220 
144 34 281 282 286 281 61 77 49 
41 62 78 50 42 121 201 125 200 
141 221 145 220 282 283 287 286 77 
85 57 49 78 86 58 50 122 202 
126 201 142 222 146 221 283 284 288 
287 85 93 73 57 86 94 74 58 
123 203 127 202 143 223 147 222 284 
285 289 288 33 41 29 33 34 42 
30 34 124 204 128 33 144 224 148 
34 281 286 290 281 41 49 21 29 
42 50 22 30 125 205 129 204 145 
225 149 224 286 287 291 290 49 57 
13 21 50 58 14 22 126 206 130 
205 146 226 150 225 287 288 292 291 
57 73 5 13 58 74 6 14 127 
207 131 206 147 227 151 226 288 289 
293 292 33 29 25 33 34 30 26 
34 128 208 132 33 148 228 152 34 
281 290 294 281 29 21 17 25 30 
22 18 26 129 209 133 208 149 229 
153 228 290 291 295 294 21 13 9 
17 22 14 10 18 130 210 134 209 
150 230 154 229 291 292 296 295 13 
5 1 9 14 6 2 10 131 211 
135 210 151 231 155 230 292 293 297 
296 33 25 37 33 34 26 38 34 
132 212 136 33 152 232 156 34 281 
294 298 281 25 17 45 37 26 18 
46 38 133 213 137 212 153 233 157 
232 294 295 299 298 17 9 53 45 
18 10 54 46 134 214 138 213 154 
234 158 233 295 296 300 299 9 1 
69 53 10 2 70 54 135 215 139 
214 155 235 159 234 296 297 301 300 
33 37 61 33 34 38 62 34 136 
216 120 33 156 236 140 34 281 298 
282 281 37 45 77 61 38 46 78 
62 137 217 121 216 157 237 141 236 
298 299 283 282 45 53 85 77 46 
54 86 78 138 218 122 217 158 238 
142 237 299 300 284 283 53 69 93 
85 54 70 94 86 139 219 123 218 
159 239 143 238 300 301 285 284 34 
62 42 34 35 63 43 35 140 220 
144 34 160 240 164 35 302 303 307 
302 62 78 50 42 63 79 51 43 
141 221 145 220 161 241 165 240 303 
304 308 307 78 86 58 50 79 87 
59 51 142 222 146 221 162 242 166 
241 304 305 309 308 86 94 74 58 
87 95 75 59 143 223 147 222 163 
243 167 242 305 306 310 309 34 42 
30 34 35 43 31 35 144 224 148 
34 164 244 168 35 302 307 311 302 
42 50 22 30 43 51 23 31 145 
225 149 224 165 245 169 244 307 308 
312 311 50 58 14 22 51 59 15 
23 146 226 150 225 166 246 170 245 
308 309 313 312 58 74 6 14 59 
75 7 15 147 227 151 226 167 247 
171 246 309 310 314 313 34 30 26 
34 35 31 27 35 148 228 152 34 
168 248 172 35 302 311 315 302 30 
22 18 26 31 23 19 27 149 229 
153 228 169 249 173 248 311 312 316 
315 22 14 10 18 23 15 11 19 
150 230 154 229 170 250 174 249 312 
313 317 316 14 6 2 10 15 7 
3 11 151 231 155 230 171 251 175 
250 313 314 318 317 34 26 38 34 
35 27 39 35 152 232 156 34 172 
252 176 35 302 315 319 302 26 18 
46 38 27 19 47 39 153 233 157 
232 173 253 177 252 315 316 320 319 
18 10 54 46 19 11 55 47 154 
234 158 233 174 254 178 253 316 317 
321 320 10 2 70 54 11 3 71 
55 155 235 159 234 175 255 179 254 
317 318 322 321 34 38 62 34 35 
39 63 35 156 236 140 34 176 256 
160 35 302 319 303 302 38 46 78 
62 39 47 79 63 157 237 141 236 
177 257 161 256 319 320 304 303 46 
54 86 78 47 55 87 79 158 238 
142 237 178 258 162 257 320 321 305 
304 54 70 94 86 55 71 95 87 
159 239 143 238 179 259 163 258 321 
322 306 305 
CELL_TYPES 60
25
25
25
25
25
25
25
25
25
25
25
25
25
25
25
25
25
25
25
25
25
25
25
25
25
25
25
25
25
25
25
25
25
25
25
25
25
25
25
25
25
25
25
25
25
25
25
25
25
25
25
25
25
25
25
25
25
25
25
25

CELL_DATA 60
FIELD FieldData 1
ascending_data 1 60 double
0 100 200 300 400 500 600 700 800 
900 1000 1100 1200 1300 1400 1500 1600 1700 
1800 1900 2000 2100 2200 2300 2400 2500 2600 
2700 2800 2900 3000 3100 3200 3300 3400 3500 
3600 3700 3800 3900 4000 4100 4200 4300 4400 
4500 4600 4700 4800 4900 5000 5100 5200 5300 
5400 5500 5600 5700 5800 5900 
