# vtk DataFile Version 5.1
vtk output
ASCII
DATASET STRUCTURED_GRID
DIMENSIONS 5 4 4
POINTS 80 double
10 10 -10 11.25 10 -10 12.5 10 -10 
13.75 10 -10 15 10 -10 10 10 -10 
9.375 11.082531755 -10 8.75 12.165063509 -10 8.125 13.247595264 -10 
7.5 14.330127019 -10 10 10 -10 9.375 8.9174682453 -10 
8.75 7.8349364905 -10 8.125 6.7524047358 -10 7.5 5.6698729811 -10 
10 10 -10 11.25 10 -10 12.5 10 -10 
13.75 10 -10 15 10 -10 10 10 -9.3333333333 
11.25 10 -9.3333333333 12.5 10 -9.3333333333 13.75 10 -9.3333333333 
15 10 -9.3333333333 10 10 -9.3333333333 9.375 11.082531755 -9.3333333333 
8.75 12.165063509 -9.3333333333 8.125 13.247595264 -9.3333333333 7.5 14.330127019 -9.3333333333 
10 10 -9.3333333333 9.375 8.9174682453 -9.3333333333 8.75 7.8349364905 -9.3333333333 
8.125 6.7524047358 -9.3333333333 7.5 5.6698729811 -9.3333333333 10 10 -9.3333333333 
11.25 10 -9.3333333333 12.5 10 -9.3333333333 13.75 10 -9.3333333333 
15 10 -9.3333333333 10 10 -8.6666666667 11.25 10 -8.6666666667 
12.5 10 -8.6666666667 13.75 10 -8.6666666667 15 10 -8.6666666667 
10 10 -8.6666666667 9.375 11.082531755 -8.6666666667 8.75 12.165063509 -8.6666666667 
8.125 13.247595264 -8.6666666667 7.5 14.330127019 -8.6666666667 10 10 -8.6666666667 
9.375 8.9174682453 -8.6666666667 8.75 7.8349364905 -8.6666666667 8.125 6.7524047358 -8.6666666667 
7.5 5.6698729811 -8.6666666667 10 10 -8.6666666667 11.25 10 -8.6666666667 
12.5 10 -8.6666666667 13.75 10 -8.6666666667 15 10 -8.6666666667 
10 10 -8 11.25 10 -8 12.5 10 -8 
13.75 10 -8 15 10 -8 10 10 -8 
9.375 11.082531755 -8 8.75 12.165063509 -8 8.125 13.247595264 -8 
7.5 14.330127019 -8 10 10 -8 9.375 8.9174682453 -8 
8.75 7.8349364905 -8 8.125 6.7524047358 -8 7.5 5.6698729811 -8 
10 10 -8 11.25 10 -8 12.5 10 -8 
13.75 10 -8 15 10 -8 
CELL_DATA 36
FIELD FieldData 1
ascending_data 1 36 double
0 100 200 300 400 500 600 700 800 
900 1000 1100 1200 1300 1400 1500 1600 1700 
1800 1900 2000 2100 2200 2300 2400 2500 2600 
2700 2800 2900 3000 3100 3200 3300 3400 3500 

