# vtk DataFile Version 5.1
vtk output
ASCII
DATASET STRUCTURED_GRID
DIMENSIONS 5 4 4
POINTS 80 double
0 0 0 1.25 0 0 2.5 0 0 
3.75 0 0 5 0 0 0 0 0 
-0.625 1.0825317547 0 -1.25 2.1650635095 0 -1.875 3.2475952642 0 
-2.5 4.3301270189 0 0 0 0 -0.625 -1.0825317547 0 
-1.25 -2.1650635095 0 -1.875 -3.2475952642 0 -2.5 -4.3301270189 0 
0 0 0 1.25 -3.0616169979e-16 0 2.5 -6.1232339957e-16 0 
3.75 -9.1848509936e-16 0 5 -1.2246467991e-15 0 0 0 0.66666666667 
1.25 0 0.66666666667 2.5 0 0.66666666667 3.75 0 0.66666666667 
5 0 0.66666666667 0 0 0.66666666667 -0.625 1.0825317547 0.66666666667 
-1.25 2.1650635095 0.66666666667 -1.875 3.2475952642 0.66666666667 -2.5 4.3301270189 0.66666666667 
0 0 0.66666666667 -0.625 -1.0825317547 0.66666666667 -1.25 -2.1650635095 0.66666666667 
-1.875 -3.2475952642 0.66666666667 -2.5 -4.3301270189 0.66666666667 0 0 0.66666666667 
1.25 -3.0616169979e-16 0.66666666667 2.5 -6.1232339957e-16 0.66666666667 3.75 -9.1848509936e-16 0.66666666667 
5 -1.2246467991e-15 0.66666666667 0 0 1.3333333333 1.25 0 1.3333333333 
2.5 0 1.3333333333 3.75 0 1.3333333333 5 0 1.3333333333 
0 0 1.3333333333 -0.625 1.0825317547 1.3333333333 -1.25 2.1650635095 1.3333333333 
-1.875 3.2475952642 1.3333333333 -2.5 4.3301270189 1.3333333333 0 0 1.3333333333 
-0.625 -1.0825317547 1.3333333333 -1.25 -2.1650635095 1.3333333333 -1.875 -3.2475952642 1.3333333333 
-2.5 -4.3301270189 1.3333333333 0 0 1.3333333333 1.25 -3.0616169979e-16 1.3333333333 
2.5 -6.1232339957e-16 1.3333333333 3.75 -9.1848509936e-16 1.3333333333 5 -1.2246467991e-15 1.3333333333 
0 0 2 1.25 0 2 2.5 0 2 
3.75 0 2 5 0 2 0 0 2 
-0.625 1.0825317547 2 -1.25 2.1650635095 2 -1.875 3.2475952642 2 
-2.5 4.3301270189 2 0 0 2 -0.625 -1.0825317547 2 
-1.25 -2.1650635095 2 -1.875 -3.2475952642 2 -2.5 -4.3301270189 2 
0 0 2 1.25 -3.0616169979e-16 2 2.5 -6.1232339957e-16 2 
3.75 -9.1848509936e-16 2 5 -1.2246467991e-15 2 
CELL_DATA 36
FIELD FieldData 1
ascending_data 1 36 double
0 100 200 300 400 500 600 700 800 
900 1000 1100 1200 1300 1400 1500 1600 1700 
1800 1900 2000 2100 2200 2300 2400 2500 2600 
2700 2800 2900 3000 3100 3200 3300 3400 3500 

